<?xml version="1.0" encoding="UTF-8"?>

<!-- generated on 2023-12-13 20:28:42 by Eclipse SUMO GUI Version 1.13.0
<configuration xmlns:xsi="http://www.w3.org/2001/XMLSchema-instance" xsi:noNamespaceSchemaLocation="http://sumo.dlr.de/xsd/sumoConfiguration.xsd">

    <input>
        <net-file value="C:\Project\Webots\simple_case\AnnarborRoundabout\worlds\myMapV5_net\sumo.net.xml"/>
        <route-files value="C:\Project\Webots\simple_case\AnnarborRoundabout\worlds\myMapV5_net\sumo.rou.xml"/>
    </input>

    <output>
        <netstate-dump value="C:\Project\Webots\simple_case\AnnarborRoundabout\worlds\myMapV5_net\netstate_out.xml"/>
        <tripinfo-output value="C:\Project\Webots\simple_case\AnnarborRoundabout\worlds\myMapV5_net\tripinfo.xml"/>
        <statistic-output value="C:\Project\Webots\simple_case\AnnarborRoundabout\worlds\myMapV5_net\stating.xml"/>
    </output>

    <time>
        <begin value="0"/>
        <end value="24900"/>
        <step-length value="0.05"/>
    </time>

    <processing>
        <step-method.ballistic value="true"/>
        <route-steps value="0"/>
    </processing>

    <traci_server>
        <remote-port value="8873"/>
    </traci_server>

    <random_number>
        <seed value="1"/>
    </random_number>

    <gui_only>
        <quit-on-end value="true"/>
        <start value="true"/>
        <tracker-interval value="0.05"/>
    </gui_only>

</configuration>
-->

<netstate xmlns:xsi="http://www.w3.org/2001/XMLSchema-instance" xsi:noNamespaceSchemaLocation="http://sumo.dlr.de/xsd/netstate_file.xsd">
    <timestep time="0.00">
        <edge id="-405036644_3">
            <lane id="-405036644_3_0">
                <vehicle id="1" pos="2.60" speed="3.70"/>
            </lane>
        </edge>
        <edge id="222822932">
            <lane id="222822932_0">
                <vehicle id="5" pos="2.60" speed="0.00"/>
            </lane>
            <lane id="222822932_1"/>
        </edge>
        <edge id="376034497_1">
            <lane id="376034497_1_0">
                <vehicle id="3" pos="2.60" speed="6.40"/>
            </lane>
            <lane id="376034497_1_1"/>
        </edge>
        <edge id="376034500_1">
            <lane id="376034500_1_0">
                <vehicle id="4" pos="2.60" speed="8.28"/>
            </lane>
            <lane id="376034500_1_1"/>
        </edge>
        <edge id="412456387">
            <lane id="412456387_0">
                <vehicle id="2" pos="2.60" speed="8.86"/>
            </lane>
            <lane id="412456387_1"/>
        </edge>
    </timestep>
    <timestep time="0.05">
        <edge id="-405036644_3">
            <lane id="-405036644_3_0">
                <vehicle id="1" pos="2.78" speed="3.53"/>
            </lane>
        </edge>
        <edge id="222822932">
            <lane id="222822932_0">
                <vehicle id="5" pos="2.60" speed="0.14"/>
            </lane>
            <lane id="222822932_1"/>
        </edge>
        <edge id="376034497_1">
            <lane id="376034497_1_0">
                <vehicle id="3" pos="2.92" speed="6.47"/>
            </lane>
            <lane id="376034497_1_1"/>
        </edge>
        <edge id="376034500_1">
            <lane id="376034500_1_0">
                <vehicle id="4" pos="3.01" speed="8.29"/>
            </lane>
            <lane id="376034500_1_1"/>
        </edge>
        <edge id="412456387">
            <lane id="412456387_0">
                <vehicle id="2" pos="3.04" speed="8.86"/>
            </lane>
            <lane id="412456387_1"/>
        </edge>
        <edge id="442406713_1">
            <lane id="442406713_1_0">
                <vehicle id="webotsVehicle0" pos="39.43" speed="0.00"/>
            </lane>
        </edge>
    </timestep>
    <timestep time="0.10">
        <edge id="-405036644_3">
            <lane id="-405036644_3_0">
                <vehicle id="1" pos="2.95" speed="3.36"/>
            </lane>
        </edge>
        <edge id="222822932">
            <lane id="222822932_0">
                <vehicle id="5" pos="2.61" speed="0.28"/>
            </lane>
            <lane id="222822932_1"/>
        </edge>
        <edge id="376034497_1">
            <lane id="376034497_1_0">
                <vehicle id="3" pos="3.25" speed="6.53"/>
            </lane>
            <lane id="376034497_1_1"/>
        </edge>
        <edge id="376034500_1">
            <lane id="376034500_1_0">
                <vehicle id="4" pos="3.43" speed="8.30"/>
            </lane>
            <lane id="376034500_1_1"/>
        </edge>
        <edge id="412456387">
            <lane id="412456387_0">
                <vehicle id="2" pos="3.49" speed="8.86"/>
            </lane>
            <lane id="412456387_1"/>
        </edge>
        <edge id="442406713_1">
            <lane id="442406713_1_0">
                <vehicle id="webotsVehicle0" pos="39.43" speed="0.00"/>
            </lane>
        </edge>
    </timestep>
    <timestep time="0.15">
        <edge id="-405036644_3">
            <lane id="-405036644_3_0">
                <vehicle id="1" pos="3.12" speed="3.19"/>
            </lane>
        </edge>
        <edge id="222822932">
            <lane id="222822932_0">
                <vehicle id="5" pos="2.63" speed="0.42"/>
            </lane>
            <lane id="222822932_1"/>
        </edge>
        <edge id="376034497_1">
            <lane id="376034497_1_0">
                <vehicle id="3" pos="3.57" speed="6.60"/>
            </lane>
            <lane id="376034497_1_1"/>
        </edge>
        <edge id="376034500_1">
            <lane id="376034500_1_0">
                <vehicle id="4" pos="3.84" speed="8.31"/>
            </lane>
            <lane id="376034500_1_1"/>
        </edge>
        <edge id="412456387">
            <lane id="412456387_0">
                <vehicle id="2" pos="3.93" speed="8.86"/>
            </lane>
            <lane id="412456387_1"/>
        </edge>
        <edge id="442406713_1">
            <lane id="442406713_1_0">
                <vehicle id="webotsVehicle0" pos="39.43" speed="0.00"/>
            </lane>
        </edge>
    </timestep>
    <timestep time="0.20">
        <edge id="-405036644_3">
            <lane id="-405036644_3_0">
                <vehicle id="1" pos="3.27" speed="3.02"/>
            </lane>
        </edge>
        <edge id="222822932">
            <lane id="222822932_0">
                <vehicle id="5" pos="2.66" speed="0.56"/>
            </lane>
            <lane id="222822932_1"/>
        </edge>
        <edge id="376034497_1">
            <lane id="376034497_1_0">
                <vehicle id="3" pos="3.91" speed="6.66"/>
            </lane>
            <lane id="376034497_1_1"/>
        </edge>
        <edge id="376034500_1">
            <lane id="376034500_1_0">
                <vehicle id="4" pos="4.26" speed="8.32"/>
            </lane>
            <lane id="376034500_1_1"/>
        </edge>
        <edge id="412456387">
            <lane id="412456387_0">
                <vehicle id="2" pos="4.37" speed="8.86"/>
            </lane>
            <lane id="412456387_1"/>
        </edge>
        <edge id="442406713_1">
            <lane id="442406713_1_0">
                <vehicle id="webotsVehicle0" pos="39.43" speed="0.00"/>
            </lane>
        </edge>
    </timestep>
    <timestep time="0.25">
        <edge id="-405036644_3">
            <lane id="-405036644_3_0">
                <vehicle id="1" pos="3.42" speed="2.84"/>
            </lane>
        </edge>
        <edge id="222822932">
            <lane id="222822932_0">
                <vehicle id="5" pos="2.69" speed="0.70"/>
            </lane>
            <lane id="222822932_1"/>
        </edge>
        <edge id="376034497_1">
            <lane id="376034497_1_0">
                <vehicle id="3" pos="4.24" speed="6.72"/>
            </lane>
            <lane id="376034497_1_1"/>
        </edge>
        <edge id="376034500_1">
            <lane id="376034500_1_0">
                <vehicle id="4" pos="4.68" speed="8.33"/>
            </lane>
            <lane id="376034500_1_1"/>
        </edge>
        <edge id="412456387">
            <lane id="412456387_0">
                <vehicle id="2" pos="4.81" speed="8.86"/>
            </lane>
            <lane id="412456387_1"/>
        </edge>
        <edge id="442406713_1">
            <lane id="442406713_1_0">
                <vehicle id="webotsVehicle0" pos="39.43" speed="0.00"/>
            </lane>
        </edge>
    </timestep>
    <timestep time="0.30">
        <edge id="-405036644_3">
            <lane id="-405036644_3_0">
                <vehicle id="1" pos="3.56" speed="2.67"/>
            </lane>
        </edge>
        <edge id="222822932">
            <lane id="222822932_0">
                <vehicle id="5" pos="2.73" speed="0.84"/>
            </lane>
            <lane id="222822932_1"/>
        </edge>
        <edge id="376034497_1">
            <lane id="376034497_1_0">
                <vehicle id="3" pos="4.58" speed="6.77"/>
            </lane>
            <lane id="376034497_1_1"/>
        </edge>
        <edge id="376034500_1">
            <lane id="376034500_1_0">
                <vehicle id="4" pos="5.09" speed="8.34"/>
            </lane>
            <lane id="376034500_1_1"/>
        </edge>
        <edge id="412456387">
            <lane id="412456387_0">
                <vehicle id="2" pos="5.26" speed="8.86"/>
            </lane>
            <lane id="412456387_1"/>
        </edge>
        <edge id="442406713_1">
            <lane id="442406713_1_0">
                <vehicle id="webotsVehicle0" pos="39.43" speed="0.00"/>
            </lane>
        </edge>
    </timestep>
    <timestep time="0.35">
        <edge id="-405036644_3">
            <lane id="-405036644_3_0">
                <vehicle id="1" pos="3.69" speed="2.50"/>
            </lane>
        </edge>
        <edge id="222822932">
            <lane id="222822932_0">
                <vehicle id="5" pos="2.77" speed="0.98"/>
            </lane>
            <lane id="222822932_1"/>
        </edge>
        <edge id="376034497_1">
            <lane id="376034497_1_0">
                <vehicle id="3" pos="4.92" speed="6.82"/>
            </lane>
            <lane id="376034497_1_1"/>
        </edge>
        <edge id="376034500_1">
            <lane id="376034500_1_0">
                <vehicle id="4" pos="5.51" speed="8.34"/>
            </lane>
            <lane id="376034500_1_1"/>
        </edge>
        <edge id="412456387">
            <lane id="412456387_0">
                <vehicle id="2" pos="5.70" speed="8.86"/>
            </lane>
            <lane id="412456387_1"/>
        </edge>
        <edge id="442406713_1">
            <lane id="442406713_1_0">
                <vehicle id="webotsVehicle0" pos="39.43" speed="0.00"/>
            </lane>
        </edge>
    </timestep>
    <timestep time="0.40">
        <edge id="-405036644_3">
            <lane id="-405036644_3_0">
                <vehicle id="1" pos="3.81" speed="2.33"/>
            </lane>
        </edge>
        <edge id="222822932">
            <lane id="222822932_0">
                <vehicle id="5" pos="2.82" speed="1.12"/>
            </lane>
            <lane id="222822932_1"/>
        </edge>
        <edge id="376034497_1">
            <lane id="376034497_1_0">
                <vehicle id="3" pos="5.26" speed="6.87"/>
            </lane>
            <lane id="376034497_1_1"/>
        </edge>
        <edge id="376034500_1">
            <lane id="376034500_1_0">
                <vehicle id="4" pos="5.93" speed="8.35"/>
            </lane>
            <lane id="376034500_1_1"/>
        </edge>
        <edge id="412456387">
            <lane id="412456387_0">
                <vehicle id="2" pos="6.14" speed="8.87"/>
            </lane>
            <lane id="412456387_1"/>
        </edge>
        <edge id="442406713_1">
            <lane id="442406713_1_0">
                <vehicle id="webotsVehicle0" pos="39.43" speed="0.00"/>
            </lane>
        </edge>
    </timestep>
    <timestep time="0.45">
        <edge id="-405036644_3">
            <lane id="-405036644_3_0">
                <vehicle id="1" pos="3.92" speed="2.16"/>
            </lane>
        </edge>
        <edge id="222822932">
            <lane id="222822932_0">
                <vehicle id="5" pos="2.88" speed="1.26"/>
            </lane>
            <lane id="222822932_1"/>
        </edge>
        <edge id="376034497_1">
            <lane id="376034497_1_0">
                <vehicle id="3" pos="5.60" speed="6.92"/>
            </lane>
            <lane id="376034497_1_1"/>
        </edge>
        <edge id="376034500_1">
            <lane id="376034500_1_0">
                <vehicle id="4" pos="6.34" speed="8.35"/>
            </lane>
            <lane id="376034500_1_1"/>
        </edge>
        <edge id="412456387">
            <lane id="412456387_0">
                <vehicle id="2" pos="6.59" speed="8.87"/>
            </lane>
            <lane id="412456387_1"/>
        </edge>
        <edge id="442406713_1">
            <lane id="442406713_1_0">
                <vehicle id="webotsVehicle0" pos="39.43" speed="0.00"/>
            </lane>
        </edge>
    </timestep>
    <timestep time="0.50">
        <edge id="-405036644_3">
            <lane id="-405036644_3_0">
                <vehicle id="1" pos="4.02" speed="1.98"/>
            </lane>
        </edge>
        <edge id="222822932">
            <lane id="222822932_0">
                <vehicle id="5" pos="2.95" speed="1.40"/>
            </lane>
            <lane id="222822932_1"/>
        </edge>
        <edge id="376034497_1">
            <lane id="376034497_1_0">
                <vehicle id="3" pos="5.95" speed="6.96"/>
            </lane>
            <lane id="376034497_1_1"/>
        </edge>
        <edge id="376034500_1">
            <lane id="376034500_1_0">
                <vehicle id="4" pos="6.76" speed="8.36"/>
            </lane>
            <lane id="376034500_1_1"/>
        </edge>
        <edge id="412456387">
            <lane id="412456387_0">
                <vehicle id="2" pos="7.03" speed="8.87"/>
            </lane>
            <lane id="412456387_1"/>
        </edge>
        <edge id="442406713_1">
            <lane id="442406713_1_0">
                <vehicle id="webotsVehicle0" pos="39.43" speed="0.00"/>
            </lane>
        </edge>
    </timestep>
    <timestep time="0.55">
        <edge id="-405036644_3">
            <lane id="-405036644_3_0">
                <vehicle id="1" pos="4.12" speed="1.81"/>
            </lane>
        </edge>
        <edge id="222822932">
            <lane id="222822932_0">
                <vehicle id="5" pos="3.02" speed="1.54"/>
            </lane>
            <lane id="222822932_1"/>
        </edge>
        <edge id="376034497_1">
            <lane id="376034497_1_0">
                <vehicle id="3" pos="6.30" speed="7.00"/>
            </lane>
            <lane id="376034497_1_1"/>
        </edge>
        <edge id="376034500_1">
            <lane id="376034500_1_0">
                <vehicle id="4" pos="7.18" speed="8.36"/>
            </lane>
            <lane id="376034500_1_1"/>
        </edge>
        <edge id="412456387">
            <lane id="412456387_0">
                <vehicle id="2" pos="7.47" speed="8.87"/>
            </lane>
            <lane id="412456387_1"/>
        </edge>
        <edge id="442406713_1">
            <lane id="442406713_1_0">
                <vehicle id="webotsVehicle0" pos="39.43" speed="0.00"/>
            </lane>
        </edge>
    </timestep>
    <timestep time="0.60">
        <edge id="-405036644_3">
            <lane id="-405036644_3_0">
                <vehicle id="1" pos="4.20" speed="1.64"/>
            </lane>
        </edge>
        <edge id="222822932">
            <lane id="222822932_0">
                <vehicle id="5" pos="3.10" speed="1.68"/>
            </lane>
            <lane id="222822932_1"/>
        </edge>
        <edge id="376034497_1">
            <lane id="376034497_1_0">
                <vehicle id="3" pos="6.65" speed="7.04"/>
            </lane>
            <lane id="376034497_1_1"/>
        </edge>
        <edge id="376034500_1">
            <lane id="376034500_1_0">
                <vehicle id="4" pos="7.60" speed="8.36"/>
            </lane>
            <lane id="376034500_1_1"/>
        </edge>
        <edge id="412456387">
            <lane id="412456387_0">
                <vehicle id="2" pos="7.92" speed="8.87"/>
            </lane>
            <lane id="412456387_1"/>
        </edge>
        <edge id="442406713_1">
            <lane id="442406713_1_0">
                <vehicle id="webotsVehicle0" pos="39.43" speed="0.00"/>
            </lane>
        </edge>
    </timestep>
    <timestep time="0.65">
        <edge id="-405036644_3">
            <lane id="-405036644_3_0">
                <vehicle id="1" pos="4.28" speed="1.47"/>
            </lane>
        </edge>
        <edge id="222822932">
            <lane id="222822932_0">
                <vehicle id="5" pos="3.19" speed="1.82"/>
            </lane>
            <lane id="222822932_1"/>
        </edge>
        <edge id="376034497_1">
            <lane id="376034497_1_0">
                <vehicle id="3" pos="7.00" speed="7.08"/>
            </lane>
            <lane id="376034497_1_1"/>
        </edge>
        <edge id="376034500_1">
            <lane id="376034500_1_0">
                <vehicle id="4" pos="8.02" speed="8.37"/>
            </lane>
            <lane id="376034500_1_1"/>
        </edge>
        <edge id="412456387">
            <lane id="412456387_0">
                <vehicle id="2" pos="8.36" speed="8.87"/>
            </lane>
            <lane id="412456387_1"/>
        </edge>
        <edge id="442406713_1">
            <lane id="442406713_1_0">
                <vehicle id="webotsVehicle0" pos="39.43" speed="0.00"/>
            </lane>
        </edge>
    </timestep>
    <timestep time="0.70">
        <edge id="-405036644_3">
            <lane id="-405036644_3_0">
                <vehicle id="1" pos="4.35" speed="1.30"/>
            </lane>
        </edge>
        <edge id="222822932">
            <lane id="222822932_0">
                <vehicle id="5" pos="3.29" speed="1.95"/>
            </lane>
            <lane id="222822932_1"/>
        </edge>
        <edge id="376034497_1">
            <lane id="376034497_1_0">
                <vehicle id="3" pos="7.36" speed="7.11"/>
            </lane>
            <lane id="376034497_1_1"/>
        </edge>
        <edge id="376034500_1">
            <lane id="376034500_1_0">
                <vehicle id="4" pos="8.44" speed="8.37"/>
            </lane>
            <lane id="376034500_1_1"/>
        </edge>
        <edge id="412456387">
            <lane id="412456387_0">
                <vehicle id="2" pos="8.80" speed="8.87"/>
            </lane>
            <lane id="412456387_1"/>
        </edge>
        <edge id="442406713_1">
            <lane id="442406713_1_0">
                <vehicle id="webotsVehicle0" pos="39.43" speed="0.00"/>
            </lane>
        </edge>
    </timestep>
    <timestep time="0.75">
        <edge id="-405036644_3">
            <lane id="-405036644_3_0">
                <vehicle id="1" pos="4.41" speed="1.12"/>
            </lane>
        </edge>
        <edge id="222822932">
            <lane id="222822932_0">
                <vehicle id="5" pos="3.39" speed="2.09"/>
            </lane>
            <lane id="222822932_1"/>
        </edge>
        <edge id="376034497_1">
            <lane id="376034497_1_0">
                <vehicle id="3" pos="7.72" speed="7.14"/>
            </lane>
            <lane id="376034497_1_1"/>
        </edge>
        <edge id="376034500_1">
            <lane id="376034500_1_0">
                <vehicle id="4" pos="8.85" speed="8.37"/>
            </lane>
            <lane id="376034500_1_1"/>
        </edge>
        <edge id="412456387">
            <lane id="412456387_0">
                <vehicle id="2" pos="9.25" speed="8.87"/>
            </lane>
            <lane id="412456387_1"/>
        </edge>
        <edge id="442406713_1">
            <lane id="442406713_1_0">
                <vehicle id="webotsVehicle0" pos="39.43" speed="0.00"/>
            </lane>
        </edge>
    </timestep>
    <timestep time="0.80">
        <edge id="-405036644_3">
            <lane id="-405036644_3_0">
                <vehicle id="1" pos="4.46" speed="0.95"/>
            </lane>
        </edge>
        <edge id="222822932">
            <lane id="222822932_0">
                <vehicle id="5" pos="3.49" speed="2.23"/>
            </lane>
            <lane id="222822932_1"/>
        </edge>
        <edge id="376034497_1">
            <lane id="376034497_1_0">
                <vehicle id="3" pos="8.07" speed="7.17"/>
            </lane>
            <lane id="376034497_1_1"/>
        </edge>
        <edge id="376034500_1">
            <lane id="376034500_1_0">
                <vehicle id="4" pos="9.27" speed="8.37"/>
            </lane>
            <lane id="376034500_1_1"/>
        </edge>
        <edge id="412456387">
            <lane id="412456387_0">
                <vehicle id="2" pos="9.69" speed="8.87"/>
            </lane>
            <lane id="412456387_1"/>
        </edge>
        <edge id="442406713_1">
            <lane id="442406713_1_0">
                <vehicle id="webotsVehicle0" pos="39.43" speed="0.00"/>
            </lane>
        </edge>
    </timestep>
    <timestep time="0.85">
        <edge id="-405036644_3">
            <lane id="-405036644_3_0">
                <vehicle id="1" pos="4.51" speed="0.78"/>
            </lane>
        </edge>
        <edge id="222822932">
            <lane id="222822932_0">
                <vehicle id="5" pos="3.61" speed="2.37"/>
            </lane>
            <lane id="222822932_1"/>
        </edge>
        <edge id="376034497_1">
            <lane id="376034497_1_0">
                <vehicle id="3" pos="8.43" speed="7.19"/>
            </lane>
            <lane id="376034497_1_1"/>
        </edge>
        <edge id="376034500_1">
            <lane id="376034500_1_0">
                <vehicle id="4" pos="9.69" speed="8.37"/>
            </lane>
            <lane id="376034500_1_1"/>
        </edge>
        <edge id="412456387">
            <lane id="412456387_0">
                <vehicle id="2" pos="10.14" speed="8.87"/>
            </lane>
            <lane id="412456387_1"/>
        </edge>
        <edge id="442406713_1">
            <lane id="442406713_1_0">
                <vehicle id="webotsVehicle0" pos="39.43" speed="0.00"/>
            </lane>
        </edge>
    </timestep>
    <timestep time="0.90">
        <edge id="-405036644_3">
            <lane id="-405036644_3_0">
                <vehicle id="1" pos="4.54" speed="0.61"/>
            </lane>
        </edge>
        <edge id="222822932">
            <lane id="222822932_0">
                <vehicle id="5" pos="3.73" speed="2.51"/>
            </lane>
            <lane id="222822932_1"/>
        </edge>
        <edge id="376034497_1">
            <lane id="376034497_1_0">
                <vehicle id="3" pos="8.79" speed="7.21"/>
            </lane>
            <lane id="376034497_1_1"/>
        </edge>
        <edge id="376034500_1">
            <lane id="376034500_1_0">
                <vehicle id="4" pos="10.11" speed="8.37"/>
            </lane>
            <lane id="376034500_1_1"/>
        </edge>
        <edge id="412456387">
            <lane id="412456387_0">
                <vehicle id="2" pos="10.58" speed="8.87"/>
            </lane>
            <lane id="412456387_1"/>
        </edge>
        <edge id="442406713_1">
            <lane id="442406713_1_0">
                <vehicle id="webotsVehicle0" pos="39.43" speed="0.00"/>
            </lane>
        </edge>
    </timestep>
    <timestep time="0.95">
        <edge id="-405036644_3">
            <lane id="-405036644_3_0">
                <vehicle id="1" pos="4.57" speed="0.44"/>
            </lane>
        </edge>
        <edge id="222822932">
            <lane id="222822932_0">
                <vehicle id="5" pos="3.86" speed="2.64"/>
            </lane>
            <lane id="222822932_1"/>
        </edge>
        <edge id="376034497_1">
            <lane id="376034497_1_0">
                <vehicle id="3" pos="9.15" speed="7.24"/>
            </lane>
            <lane id="376034497_1_1"/>
        </edge>
        <edge id="376034500_1">
            <lane id="376034500_1_0">
                <vehicle id="4" pos="10.53" speed="8.37"/>
            </lane>
            <lane id="376034500_1_1"/>
        </edge>
        <edge id="412456387">
            <lane id="412456387_0">
                <vehicle id="2" pos="11.02" speed="8.87"/>
            </lane>
            <lane id="412456387_1"/>
        </edge>
        <edge id="442406713_1">
            <lane id="442406713_1_0">
                <vehicle id="webotsVehicle0" pos="39.43" speed="0.00"/>
            </lane>
        </edge>
    </timestep>
    <timestep time="1.00">
        <edge id="-405036644_3">
            <lane id="-405036644_3_0">
                <vehicle id="1" pos="4.58" speed="0.26"/>
            </lane>
        </edge>
        <edge id="222822932">
            <lane id="222822932_0">
                <vehicle id="5" pos="4.00" speed="2.78"/>
            </lane>
            <lane id="222822932_1"/>
        </edge>
        <edge id="376034497_1">
            <lane id="376034497_1_0">
                <vehicle id="3" pos="9.52" speed="7.25"/>
            </lane>
            <lane id="376034497_1_1"/>
        </edge>
        <edge id="376034500_1">
            <lane id="376034500_1_0">
                <vehicle id="4" pos="10.95" speed="8.37"/>
            </lane>
            <lane id="376034500_1_1"/>
        </edge>
        <edge id="412456387">
            <lane id="412456387_0">
                <vehicle id="2" pos="11.47" speed="8.87"/>
            </lane>
            <lane id="412456387_1"/>
        </edge>
        <edge id="442406713_1">
            <lane id="442406713_1_0">
                <vehicle id="webotsVehicle0" pos="39.43" speed="0.00"/>
            </lane>
        </edge>
    </timestep>
    <timestep time="1.05">
        <edge id="-405036644_3">
            <lane id="-405036644_3_0">
                <vehicle id="1" pos="4.59" speed="0.09"/>
            </lane>
        </edge>
        <edge id="222822932">
            <lane id="222822932_0">
                <vehicle id="5" pos="4.14" speed="2.92"/>
            </lane>
            <lane id="222822932_1"/>
        </edge>
        <edge id="376034497_1">
            <lane id="376034497_1_0">
                <vehicle id="3" pos="9.88" speed="7.27"/>
            </lane>
            <lane id="376034497_1_1"/>
        </edge>
        <edge id="376034500_1">
            <lane id="376034500_1_0">
                <vehicle id="4" pos="11.36" speed="8.37"/>
            </lane>
            <lane id="376034500_1_1"/>
        </edge>
        <edge id="412456387">
            <lane id="412456387_0">
                <vehicle id="2" pos="11.91" speed="8.87"/>
            </lane>
            <lane id="412456387_1"/>
        </edge>
        <edge id="442406713_1">
            <lane id="442406713_1_0">
                <vehicle id="webotsVehicle0" pos="39.43" speed="0.00"/>
            </lane>
        </edge>
    </timestep>
    <timestep time="1.10">
        <edge id="-405036644_3">
            <lane id="-405036644_3_0">
                <vehicle id="1" pos="4.59" speed="0.00"/>
            </lane>
        </edge>
        <edge id="222822932">
            <lane id="222822932_0">
                <vehicle id="5" pos="4.29" speed="3.05"/>
            </lane>
            <lane id="222822932_1"/>
        </edge>
        <edge id="376034497_1">
            <lane id="376034497_1_0">
                <vehicle id="3" pos="10.24" speed="7.28"/>
            </lane>
            <lane id="376034497_1_1"/>
        </edge>
        <edge id="376034500_1">
            <lane id="376034500_1_0">
                <vehicle id="4" pos="11.78" speed="8.37"/>
            </lane>
            <lane id="376034500_1_1"/>
        </edge>
        <edge id="412456387">
            <lane id="412456387_0">
                <vehicle id="2" pos="12.35" speed="8.87"/>
            </lane>
            <lane id="412456387_1"/>
        </edge>
        <edge id="442406713_1">
            <lane id="442406713_1_0">
                <vehicle id="webotsVehicle0" pos="39.43" speed="0.00"/>
            </lane>
        </edge>
    </timestep>
    <timestep time="1.15">
        <edge id="-405036644_3">
            <lane id="-405036644_3_0">
                <vehicle id="1" pos="4.59" speed="0.00"/>
            </lane>
        </edge>
        <edge id="222822932">
            <lane id="222822932_0">
                <vehicle id="5" pos="4.44" speed="3.19"/>
            </lane>
            <lane id="222822932_1"/>
        </edge>
        <edge id="376034497_1">